# LAMMPS data file generated from vertex.txt

308 atoms
231 bonds

1 atom types
1 bond types

0.0 21.000000 xlo xhi
0.0 19.052559 ylo yhi
-0.5 0.5 zlo zhi

Masses

1 1.0

Atoms

1 1 0.731681 1.326685 0.000000
2 1 1.002417 0.286783 0.000000
3 1 1.973744 19.004384 0.000000
4 1 3.153419 0.971116 0.000000
5 1 3.936858 1.168290 0.000000
6 1 2.850801 0.223047 0.000000
7 1 4.926732 0.903417 0.000000
8 1 5.750529 0.293142 0.000000
9 1 6.544490 1.040587 0.000000
10 1 7.481845 1.045442 0.000000
11 1 7.817060 18.622254 0.000000
12 1 7.987609 0.504651 0.000000
13 1 8.986629 0.786928 0.000000
14 1 9.560915 0.194643 0.000000
15 1 10.411255 0.479384 0.000000
16 1 11.877191 18.854052 0.000000
17 1 12.530987 0.451911 0.000000
18 1 13.106817 18.933500 0.000000
19 1 13.901543 0.042885 0.000000
20 1 13.861951 1.064640 0.000000
21 1 15.055928 2.101467 0.000000
22 1 16.736577 0.730114 0.000000
23 1 16.516458 18.695147 0.000000
24 1 17.608003 1.069975 0.000000
25 1 18.303680 0.599200 0.000000
26 1 18.821064 18.285641 0.000000
27 1 19.623763 18.775138 0.000000
28 1 19.264019 0.772085 0.000000
29 1 0.576433 3.350273 0.000000
30 1 1.468566 1.991152 0.000000
31 1 2.448983 1.895726 0.000000
32 1 2.736658 2.912131 0.000000
33 1 3.304694 4.462534 0.000000
34 1 4.301789 1.992272 0.000000
35 1 5.017025 1.755977 0.000000
36 1 5.538154 2.229434 0.000000
37 1 6.959452 2.470131 0.000000
38 1 6.293996 1.998101 0.000000
39 1 7.727350 1.958429 0.000000
40 1 8.452036 3.358996 0.000000
41 1 8.639318 2.386345 0.000000
42 1 9.340652 1.739188 0.000000
43 1 10.361671 1.663380 0.000000
44 1 11.159612 2.483586 0.000000
45 1 12.279243 2.266037 0.000000
46 1 12.798795 1.267991 0.000000
47 1 14.324329 1.636009 0.000000
48 1 14.306543 2.455200 0.000000
49 1 15.725275 2.251403 0.000000
50 1 16.426671 1.689927 0.000000
51 1 17.297227 1.963585 0.000000
52 1 17.560741 2.862588 0.000000
53 1 18.408273 3.343858 0.000000
54 1 19.777489 1.719506 0.000000
55 1 20.755560 1.890507 0.000000
56 1 20.833099 2.848740 0.000000
57 1 0.302098 4.238072 0.000000
58 1 1.280596 3.048533 0.000000
59 1 2.057656 3.489295 0.000000
60 1 2.433486 4.576606 0.000000
61 1 3.500972 3.330948 0.000000
62 1 4.189059 2.919472 0.000000
63 1 5.048478 3.184985 0.000000
64 1 5.460638 4.088842 0.000000
65 1 6.363477 4.101777 0.000000
66 1 7.029924 3.307435 0.000000
67 1 7.686182 3.612296 0.000000
68 1 8.653899 4.326321 0.000000
69 1 10.222642 4.509231 0.000000
70 1 7.767133 4.379754 0.000000
71 1 10.967676 3.647644 0.000000
72 1 11.645170 4.277767 0.000000
73 1 12.664840 4.043597 0.000000
74 1 12.925073 3.119640 0.000000
75 1 13.892994 3.081837 0.000000
76 1 14.226307 3.848638 0.000000
77 1 15.071207 4.088558 0.000000
78 1 16.802441 3.551374 0.000000
79 1 15.936295 3.314145 0.000000
80 1 17.107961 4.371491 0.000000
81 1 17.955659 4.451756 0.000000
82 1 19.332717 2.951231 0.000000
83 1 20.059841 3.404071 0.000000
84 1 20.429475 4.329637 0.000000
85 1 0.041574 5.614215 0.000000
86 1 0.603853 5.069183 0.000000
87 1 1.250259 5.692273 0.000000
88 1 1.893687 5.679110 0.000000
89 1 3.426617 6.321575 0.000000
90 1 3.899994 5.211263 0.000000
91 1 4.934889 5.084531 0.000000
92 1 5.500254 5.922530 0.000000
93 1 6.678266 5.740502 0.000000
94 1 6.925899 4.848723 0.000000
95 1 9.160909 4.789893 0.000000
96 1 7.394482 6.424839 0.000000
97 1 9.807181 6.515637 0.000000
98 1 10.897558 5.947533 0.000000
99 1 10.930581 5.081450 0.000000
100 1 11.693627 6.566327 0.000000
101 1 12.710470 6.546003 0.000000
102 1 13.640586 6.154886 0.000000
103 1 13.598151 4.511128 0.000000
104 1 14.026062 5.380741 0.000000
105 1 15.864857 5.666575 0.000000
106 1 15.059025 5.137073 0.000000
107 1 16.701860 5.275211 0.000000
108 1 17.260288 5.838142 0.000000
109 1 18.499629 6.513255 0.000000
110 1 18.007109 5.625299 0.000000
111 1 19.827719 6.215018 0.000000
112 1 20.337485 5.438535 0.000000
113 1 0.047585 7.137350 0.000000
114 1 0.471594 6.296065 0.000000
115 1 2.432506 6.502320 0.000000
116 1 2.009101 7.802316 0.000000
117 1 3.646611 7.992558 0.000000
118 1 3.937329 6.980665 0.000000
119 1 4.927361 6.907960 0.000000
120 1 5.216865 7.727448 0.000000
121 1 7.291161 8.055085 0.000000
122 1 6.987762 7.497099 0.000000
123 1 8.855687 5.933856 0.000000
124 1 7.796453 8.697928 0.000000
125 1 9.600481 8.319181 0.000000
126 1 9.955653 7.431500 0.000000
127 1 10.775973 7.849038 0.000000
128 1 11.554869 7.526016 0.000000
129 1 12.494488 7.941013 0.000000
130 1 13.004171 7.279628 0.000000
131 1 13.883278 7.118546 0.000000
132 1 14.582607 7.815792 0.000000
133 1 15.761790 7.648157 0.000000
134 1 16.174179 6.760817 0.000000
135 1 17.028905 6.670503 0.000000
136 1 17.718255 7.209895 0.000000
137 1 19.594752 7.453189 0.000000
138 1 19.079677 6.642002 0.000000
139 1 20.255376 7.002375 0.000000
140 1 0.268438 7.926628 0.000000
141 1 0.812605 9.335205 0.000000
142 1 0.999522 8.276423 0.000000
143 1 2.656120 8.378250 0.000000
144 1 2.440029 9.489958 0.000000
145 1 3.855276 9.945481 0.000000
146 1 4.399450 8.437962 0.000000
147 1 5.905724 7.985874 0.000000
148 1 5.984423 8.989111 0.000000
149 1 6.607029 9.208400 0.000000
150 1 7.074688 8.787743 0.000000
151 1 8.225667 9.070807 0.000000
152 1 8.940205 8.997840 0.000000
153 1 9.396653 9.689458 0.000000
154 1 10.276037 9.512457 0.000000
155 1 10.328084 8.637357 0.000000
156 1 10.692405 10.117036 0.000000
157 1 12.599587 10.574556 0.000000
158 1 12.873498 8.837785 0.000000
159 1 14.045605 8.846164 0.000000
160 1 14.532631 9.685226 0.000000
161 1 15.499801 9.712829 0.000000
162 1 16.305604 9.279949 0.000000
163 1 16.604314 8.572916 0.000000
164 1 17.654268 8.294606 0.000000
165 1 18.722907 8.954235 0.000000
166 1 19.562983 8.340513 0.000000
167 1 20.472351 8.650097 0.000000
168 1 20.782475 9.459383 0.000000
169 1 0.397380 11.591707 0.000000
170 1 1.493986 9.931464 0.000000
171 1 3.023730 9.918803 0.000000
172 1 3.255425 11.344501 0.000000
173 1 3.374037 10.667963 0.000000
174 1 4.535553 9.478570 0.000000
175 1 5.371822 9.688079 0.000000
176 1 6.081367 11.490041 0.000000
177 1 6.028645 10.474223 0.000000
178 1 6.779283 9.974679 0.000000
179 1 7.685933 10.108612 0.000000
180 1 8.064273 10.853002 0.000000
181 1 9.944700 11.053396 0.000000
182 1 9.124483 10.646770 0.000000
183 1 11.411578 10.215590 0.000000
184 1 11.770923 10.933308 0.000000
185 1 13.162457 10.900857 0.000000
186 1 12.335189 9.763055 0.000000
187 1 14.096680 10.574967 0.000000
188 1 14.497245 11.221872 0.000000
189 1 15.103736 11.413162 0.000000
190 1 15.911529 11.480375 0.000000
191 1 16.270639 10.262956 0.000000
192 1 16.462664 11.211469 0.000000
193 1 17.971148 11.847208 0.000000
194 1 19.132477 10.156770 0.000000
195 1 20.202255 10.244861 0.000000
196 1 20.476933 11.164709 0.000000
197 1 0.281204 12.598434 0.000000
198 1 1.362557 11.079602 0.000000
199 1 2.253379 11.696716 0.000000
200 1 2.257551 12.573697 0.000000
201 1 3.452058 12.819795 0.000000
202 1 3.909189 12.084020 0.000000
203 1 5.081152 12.275900 0.000000
204 1 5.077488 13.315878 0.000000
205 1 5.899386 13.994252 0.000000
206 1 7.003977 13.644647 0.000000
207 1 7.303487 11.805650 0.000000
208 1 7.571948 12.715714 0.000000
209 1 8.476321 13.278100 0.000000
210 1 10.330859 12.026618 0.000000
211 1 11.441137 11.884896 0.000000
212 1 12.081879 13.405495 0.000000
213 1 12.167200 12.496583 0.000000
214 1 13.147541 11.917884 0.000000
215 1 14.050421 12.058011 0.000000
216 1 15.057366 13.396318 0.000000
217 1 14.889148 12.696766 0.000000
218 1 15.336623 12.095428 0.000000
219 1 17.086104 11.761305 0.000000
220 1 16.978892 12.862691 0.000000
221 1 17.815947 12.925181 0.000000
222 1 18.819892 11.302715 0.000000
223 1 19.741277 11.785726 0.000000
224 1 20.037981 12.754620 0.000000
225 1 0.538842 14.876956 0.000000
226 1 1.243841 14.093165 0.000000
227 1 1.217433 13.212005 0.000000
228 1 2.031036 14.641729 0.000000
229 1 2.790053 14.570675 0.000000
230 1 3.592308 14.209618 0.000000
231 1 3.973939 13.573851 0.000000
232 1 3.399113 15.098546 0.000000
233 1 6.351407 15.854001 0.000000
234 1 5.747468 15.110086 0.000000
235 1 7.849809 14.166318 0.000000
236 1 9.895459 15.022115 0.000000
237 1 10.324919 14.108299 0.000000
238 1 9.706036 13.126915 0.000000
239 1 11.327169 14.101491 0.000000
240 1 12.100648 14.778241 0.000000
241 1 13.544548 14.325112 0.000000
242 1 12.699547 14.122390 0.000000
243 1 14.478068 14.064273 0.000000
244 1 14.650271 14.872113 0.000000
245 1 15.333106 15.311799 0.000000
246 1 16.080241 13.671059 0.000000
247 1 18.294034 13.556298 0.000000
248 1 18.146215 14.547612 0.000000
249 1 19.585440 15.077107 0.000000
250 1 19.148385 14.602667 0.000000
251 1 19.240214 13.619428 0.000000
252 1 20.571189 15.181151 0.000000
253 1 0.785221 16.415689 0.000000
254 1 1.035504 15.556513 0.000000
255 1 1.806524 15.418292 0.000000
256 1 2.302083 16.126139 0.000000
257 1 4.034772 16.312066 0.000000
258 1 3.410188 15.887375 0.000000
259 1 4.984555 15.955022 0.000000
260 1 5.536922 16.505359 0.000000
261 1 7.235551 15.995781 0.000000
262 1 8.975413 15.417100 0.000000
263 1 8.056748 15.139452 0.000000
264 1 9.121860 16.959021 0.000000
265 1 9.355081 16.253673 0.000000
266 1 10.204870 16.004336 0.000000
267 1 11.047863 16.756983 0.000000
268 1 12.455326 15.802659 0.000000
269 1 12.044592 16.611576 0.000000
270 1 13.487018 15.795342 0.000000
271 1 13.827434 15.103848 0.000000
272 1 14.117629 16.551992 0.000000
273 1 15.171521 16.280725 0.000000
274 1 16.225111 14.790576 0.000000
275 1 17.113483 15.269838 0.000000
276 1 15.886590 16.913680 0.000000
277 1 18.649089 17.339660 0.000000
278 1 19.636820 15.994274 0.000000
279 1 20.434403 15.960905 0.000000
280 1 20.888968 16.576987 0.000000
281 1 0.543722 18.486280 0.000000
282 1 1.522406 17.708510 0.000000
283 1 1.516977 16.909809 0.000000
284 1 2.137180 18.161652 0.000000
285 1 3.134458 18.224591 0.000000
286 1 5.248169 17.489023 0.000000
287 1 4.106729 17.401467 0.000000
288 1 5.940792 18.267265 0.000000
289 1 6.990882 17.995847 0.000000
290 1 7.541584 16.999146 0.000000
291 1 8.370064 17.279834 0.000000
292 1 8.467558 18.153985 0.000000
293 1 9.291289 18.398493 0.000000
294 1 9.741103 17.734097 0.000000
295 1 10.619471 17.726910 0.000000
296 1 11.098138 18.769262 0.000000
297 1 12.590033 18.268934 0.000000
298 1 12.775317 17.471190 0.000000
299 1 13.833098 17.331598 0.000000
300 1 14.515323 18.242068 0.000000
301 1 15.630433 18.035488 0.000000
302 1 16.956968 16.519417 0.000000
303 1 17.629528 17.257026 0.000000
304 1 17.376801 18.243700 0.000000
305 1 18.168527 18.729470 0.000000
306 1 19.361173 16.839251 0.000000
307 1 20.325927 17.290699 0.000000
308 1 20.516922 18.211154 0.000000

Bonds

1 1 2 30
2 1 55 3
3 1 281 6
4 1 284 5
5 1 6 31
6 1 7 34
7 1 285 8
8 1 35 9
9 1 288 10
10 1 38 12
11 1 39 12
12 1 289 292
13 1 13 14
14 1 42 15
15 1 293 43
16 1 296 17
17 1 296 297
18 1 18 46
19 1 19 297
20 1 20 300
21 1 46 47
22 1 47 48
23 1 49 23
24 1 24 50
25 1 301 304
26 1 25 51
27 1 28 305
28 1 27 277
29 1 305 28
30 1 308 54
31 1 56 57
32 1 58 31
33 1 58 32
34 1 59 61
35 1 60 61
36 1 90 35
37 1 62 36
38 1 38 63
39 1 38 39
40 1 66 41
41 1 41 67
42 1 68 42
43 1 43 44
44 1 45 71
45 1 46 74
46 1 48 75
47 1 50 79
48 1 51 52
49 1 53 78
50 1 81 82
51 1 55 82
52 1 56 83
53 1 84 86
54 1 59 60
55 1 88 62
56 1 63 64
57 1 65 91
58 1 66 94
59 1 67 70
60 1 70 95
61 1 71 95
62 1 99 94
63 1 72 73
64 1 99 74
65 1 103 75
66 1 76 77
67 1 103 79
68 1 106 79
69 1 80 81
70 1 107 110
71 1 83 84
72 1 112 86
73 1 112 114
74 1 87 88
75 1 114 115
76 1 90 115
77 1 118 91
78 1 92 93
79 1 119 94
80 1 96 123
81 1 122 123
82 1 98 123
83 1 126 99
84 1 100 101
85 1 128 102
86 1 130 104
87 1 131 104
88 1 106 106
89 1 107 134
90 1 108 110
91 1 135 110
92 1 136 138
93 1 112 138
94 1 139 114
95 1 139 140
96 1 116 142
97 1 143 118
98 1 143 146
99 1 119 120
100 1 146 147
101 1 122 124
102 1 150 147
103 1 150 151
104 1 126 152
105 1 155 127
106 1 128 155
107 1 129 130
108 1 158 131
109 1 132 133
110 1 159 134
111 1 163 135
112 1 136 164
113 1 138 139
114 1 166 142
115 1 167 142
116 1 168 170
117 1 144 170
118 1 171 171
119 1 173 174
120 1 174 148
121 1 149 175
122 1 150 178
123 1 152 179
124 1 153 154
125 1 182 155
126 1 156 181
127 1 183 184
128 1 185 186
129 1 159 186
130 1 160 161
131 1 187 162
132 1 191 163
133 1 191 164
134 1 165 166
135 1 194 167
136 1 168 195
137 1 196 197
138 1 198 198
139 1 173 173
140 1 199 202
141 1 175 177
142 1 177 203
143 1 207 178
144 1 179 180
145 1 182 207
146 1 182 210
147 1 184 186
148 1 211 187
149 1 214 188
150 1 189 215
151 1 190 218
152 1 192 218
153 1 192 219
154 1 219 221
155 1 222 195
156 1 222 196
157 1 223 224
158 1 227 199
159 1 200 201
160 1 227 202
161 1 231 203
162 1 204 205
163 1 231 206
164 1 234 208
165 1 235 208
166 1 209 235
167 1 238 211
168 1 238 213
169 1 213 239
170 1 242 214
171 1 215 217
172 1 217 243
173 1 246 218
174 1 220 221
175 1 246 247
176 1 223 224
177 1 251 226
178 1 252 254
179 1 227 228
180 1 229 255
181 1 230 232
182 1 231 232
183 1 258 234
184 1 260 261
185 1 259 263
186 1 237 262
187 1 266 238
188 1 239 240
189 1 242 268
190 1 242 243
191 1 271 244
192 1 245 271
193 1 273 274
194 1 274 248
195 1 251 250
196 1 275 250
197 1 252 278
198 1 251 279
199 1 254 280
200 1 283 255
201 1 256 258
202 1 283 258
203 1 259 287
204 1 260 286
205 1 263 290
206 1 263 265
207 1 265 291
208 1 294 266
209 1 267 269
210 1 295 269
211 1 270 298
212 1 271 272
213 1 273 299
214 1 276 275
215 1 302 301
216 1 302 303
217 1 306 279
218 1 306 280
219 1 307 282
220 1 308 283
221 1 284 285
222 1 287 287
223 1 288 289
224 1 290 291
225 1 292 293
226 1 294 295
227 1 296 298
228 1 299 300
229 1 301 303
230 1 304 305
231 1 307 308
